128
Lattice="0.0 7.79576044408 7.79576044408 7.79576044408 0.0 7.79576044408 7.79576044408 7.79576044408 0.0" Properties=species:S:1:pos:R:3:force:R:3 Config_type=OUTCAR Weight=1.0 Energy=-14044.756831 Virial="19.9057579983215 -0.265352106183918 -0.00696005524416835 -0.265352106183918 19.8187573077694 -0.0643805110085572 -0.00696005524416835 -0.0643805110085572 20.5982834951162" energy=0.3703579990014987 pbc="T T T"
Li      -0.01861146      -0.07768572       0.06015432      -0.00858954       0.24328062      -0.13187163
H        2.00823746       1.99489088       1.88281635      -0.24080310      -0.14794796       0.26587830
Li      -0.03049928       1.91775054       2.03892347       0.29779932       0.12356079      -0.27859806
H        1.96393226       3.96146158       3.82216598      -0.11238884      -0.29207090       0.26109425
Li      -0.00419519       3.84252022       3.98105276      -0.06645042       0.35112657      -0.37447630
H        1.92373645       5.77002349       5.90570174       0.13295560       0.21376872      -0.25101449
Li       0.04214304       5.93026086       5.88233994      -0.15664652      -0.28730382      -0.16744773
H        1.96471057       7.70572152       7.75521066      -0.07821759       0.27343349       0.10148222
Li       1.91167820      -0.09279754       1.94853191       0.24674672       0.33115347       0.03340146
H        3.80183965       1.97053984       3.88028306       0.26961360      -0.05336273       0.18813919
Li       1.94419565       1.95840455       3.79844223       0.05002853      -0.04358123       0.15264640
H        3.90488583       3.92958470       5.94140230      -0.06731277      -0.22630028      -0.37886517
Li       1.86764111       3.85651503       5.88780074       0.15908238       0.14408334      -0.11295834
H        3.84815255       5.76858871       7.75825083       0.14826318       0.23371148       0.16339284
Li       2.01833156       5.91547214       7.81748037      -0.29720719      -0.44252080      -0.18645563
H        3.83300161       7.86945875       9.76365643       0.10572891      -0.28096862      -0.12843278
Li       3.87787792      -0.02051670       3.80207326      -0.00755930       0.15133051       0.25627446
H        5.89878036       1.99493295       5.91882599      -0.20737079      -0.30563373      -0.23338932
Li       3.83656345       1.94016978       5.92532724       0.05745387      -0.10720446      -0.28297665
H        5.90696785       3.96737523       7.83516500      -0.19465925      -0.24072520      -0.13565526
Li       3.85243396       3.86494409       7.71299663       0.14486547       0.02191300       0.45045934
H        5.78492436       5.77668904       9.70933828       0.11813139       0.24603555       0.07397398
Li       3.83513715       5.77056772       9.76047541       0.36582428       0.20245047      -0.03126616
H        5.78271742       7.72261016      11.67040595       0.25513186       0.27660109      -0.00726105
Li       5.87460384       0.06247143       5.77384501      -0.17859706      -0.23267122       0.24445638
H        7.85932404       1.98323463       7.72659719      -0.13986416      -0.21299173       0.29068173
Li       5.94153688       1.91719326       7.80033360      -0.06209266       0.12476073       0.06011856
H        7.77569526       3.86935330       9.83842143       0.03992743      -0.01241483      -0.25131866
Li       5.85718135       3.80369593       9.71273231      -0.00154138       0.49628797       0.06315838
H        7.83115270       5.79568525      11.61532980      -0.03015827       0.19393806       0.17524717
Li       5.92886853       5.88081580      11.73960154      -0.19132839      -0.29263243      -0.32075927
H        7.72605951       7.78710308      13.71376245       0.20829587       0.01066262      -0.29149112
Li       1.98252114       1.95364749       0.09407526      -0.10800330      -0.08407405      -0.43263517
H        3.90374219       3.81434905       2.00360437      -0.03079693       0.29821018      -0.11179928
Li       1.87697735       3.90962554       1.88050467       0.09668479      -0.08228739       0.27645916
H        3.99129266       5.85606530       3.86340347      -0.32343939      -0.04146752       0.09399825
Li       1.99908267       5.78819919       3.83424623      -0.18241540       0.11058109       0.07219195
H        3.93221179       7.79994738       5.75299170      -0.17940567      -0.06588683       0.17339649
Li       1.95879814       7.72930322       5.77275107       0.03756279       0.13963173       0.26007069
H        3.98784697       9.75223546       7.83876288      -0.23112932      -0.07221072      -0.15181362
Li       3.99533244       1.95584663       1.97027941      -0.38291955      -0.00683296      -0.06519675
H        5.84911493       3.82812285       3.82626567      -0.00710679       0.08418101       0.33348932
Li       3.82418183       3.85695216       3.95167093       0.24649629      -0.00325245      -0.14163051
H        5.94463583       5.84052407       5.82700908      -0.27958665      -0.00041703       0.12909869
Li       3.86615825       5.78493329       5.91867930       0.12331114       0.17495612      -0.27271049
H        5.76003648       7.77602852       7.84135885       0.17099482       0.09832542      -0.16243459
Li       3.82134256       7.77591758       7.85698338       0.31702937       0.18527704      -0.13554239
H        5.76273400       9.75878347       9.79696106       0.50704624      -0.05825091      -0.08505518
Li       5.84557996       1.84974451       3.91047761      -0.06755034       0.35166573      -0.05068262
H        7.70662103       3.85264445       5.84401135       0.34362280       0.17855386      -0.07717963
Li       5.86614430       3.79980765       5.84971088       0.08265043       0.35822256       0.06049832
H        7.83641701       5.93624790       7.81446216      -0.18917483      -0.26837638      -0.16895619
Li       5.81158541       5.93453342       7.82839348      -0.00253614      -0.41067332      -0.06035896
H        7.81764797       7.76994714       9.65060162      -0.11830494       0.15530955       0.29791167
Li       5.92140489       7.86235809       9.74607768      -0.32629923      -0.22666486      -0.06803628
H        7.79775833       9.71332717      11.59871059      -0.01377957      -0.08671946       0.29778826
Li       7.82317104       1.86174720       5.80624872      -0.00905414       0.32654219       0.19520356
H        9.64780893       3.87903696       7.77973095       0.33808902       0.10701266       0.01803269
Li       7.86233753       3.97249317       7.79512859      -0.50705421      -0.31505013      -0.04025036
H        9.66149356       5.81825575       9.69715415       0.29530432       0.04454642       0.06199033
Li       7.78767011       5.90457226       9.66346472      -0.09953846      -0.30597671       0.31347842
H        9.68156588       7.72010519      11.67660261       0.21925186       0.15124772       0.00694558
Li       7.83156969       7.73276757      11.62472336      -0.11813217       0.01158333       0.09311276
H        9.64855423       9.76847984      13.62878116       0.35067663      -0.15690723       0.01602209
Li       3.89298793       3.85523343       0.09031787       0.09932917       0.08393984      -0.32183399
H        5.90493499       5.76974643       1.92281924      -0.03949729       0.17391919       0.11316402
Li       3.91510343       5.75019777       1.96810888       0.03030045       0.20445567      -0.15239186
H        5.93991176       7.79698999       3.93438329      -0.24439210      -0.04650046      -0.21397158
Li       3.93162344       7.85679711       3.82621488      -0.00986969      -0.39268794       0.16936525
H        5.93021901       9.75000367       5.79189732      -0.16934700      -0.01839187       0.09704064
Li       3.93001298       9.74593944       5.75213163      -0.03291012       0.10117343       0.49372098
H        5.81265251      11.73506792       7.71140203       0.19049407      -0.21822290       0.32959975
Li       5.90372133       3.90391843       2.03095119      -0.23317438      -0.10445338      -0.30650276
H        7.78211793       5.75334457       3.93068515       0.20964621       0.27571740      -0.13193591
Li       5.80858545       5.80767714       3.98158150       0.18114219      -0.04633797      -0.22376311
H        7.80136731       7.73038056       5.77136151      -0.03437462       0.17840731       0.17250149
Li       5.81134584       7.73965726       5.77202733       0.12421771       0.19254066       0.18013509
H        7.78763873       9.64757499       7.81813592       0.07748945       0.26223530      -0.02356416
Li       5.92452919       9.75240295       7.73329440      -0.24975208      -0.02447048       0.13845237
H        7.84434223      11.67095471       9.66028991      -0.00233456       0.02113087       0.32724693
Li       7.80526585       3.95152851       3.81402613      -0.07964918      -0.32078138       0.45431317
H        9.74972822       5.93520245       5.89333187      -0.02775686      -0.32103901      -0.14092680
Li       7.85770156       5.91961381       5.87622115      -0.39942629      -0.39605866      -0.04934487
H        9.71270118       7.71106952       7.83822792       0.05417649       0.19004027      -0.10494678
Li       7.71373643       7.76182185       7.74971445       0.26641206       0.22836513       0.03546606
H        9.75751755       9.73017072       9.84280564      -0.03565143       0.04367764      -0.14200769
Li       7.85936797       9.78208646       9.81220149      -0.21898806      -0.15120298      -0.36532343
H        9.71722853      11.67672798      11.78829398       0.05630485       0.10293669      -0.30351976
Li       9.69621985       3.98507221       5.83995158       0.11638356      -0.36264537       0.13594940
H       11.79270788       5.85460766       7.80694279      -0.35441707      -0.04239286      -0.00107189
Li       9.66849722       5.78469404       7.77750185       0.43210655       0.39492994       0.18351095
H       11.73659539       7.86597276       9.68791040      -0.10281276      -0.20771197       0.26511108
Li       9.69683584       7.87538297       9.78170356       0.16686049      -0.47666480      -0.29523567
H       11.71199874       9.67659662      11.76452673      -0.09606259       0.24225423      -0.35977499
Li       9.75841401       9.69279078      11.77800485      -0.08437487       0.16785165      -0.08454944
H       11.69191739      11.76981793      13.70734230      -0.09363264      -0.15935364      -0.17990961
Li       5.80074836       5.78776941      -0.06625981       0.24527245       0.17606658       0.18807826
H        7.87011925       7.74302083       1.99004122      -0.20174984       0.02502223      -0.03695678
Li       5.86027885       7.81414726       2.04630948       0.02151448      -0.23834333      -0.29544676
H        7.74531124       9.68834057       3.96328993       0.22387830       0.12004558      -0.20657786
Li       5.83539948       9.80657834       3.82015825       0.04844447      -0.06574208       0.41320637
H        7.73310877      11.77150568       5.85025648       0.28826361      -0.26027381       0.01848186
Li       5.91041809      11.65505511       5.91365206      -0.32551375       0.21932745      -0.33986462
H        7.76620804      13.66990211       7.70421701       0.10187637      -0.10143876       0.34425401
Li       7.87032460       5.80070977       1.99704420      -0.26621768       0.08432164      -0.18585862
H        9.81045315       7.86915439       3.88085302      -0.31525274      -0.32920997      -0.02793941
Li       7.82811460       7.70223120       3.91221510      -0.07504176       0.24109286       0.00034427
H        9.72694765       9.67061896       5.91160267      -0.01464629       0.23200427      -0.14672463
Li       7.85025489       9.81757599       5.80535315      -0.18191789      -0.37725643       0.21058030
H        9.72021219      11.71369704       7.70090233       0.04435924      -0.16939894       0.36699696
Li       7.84509648      11.74957125       7.86237670      -0.11714949      -0.06931026      -0.30857018
H        9.77967677      13.59187658       9.66592398      -0.14384243       0.04056250       0.29965822
Li       9.76936901       5.86185297       3.99361677       0.01170983      -0.00702323      -0.19196911
H       11.64647153       7.83376120       5.76725266       0.16213891      -0.00062889       0.20375813
Li       9.67377110       7.73078877       5.81947633       0.30185626       0.42545254       0.17725417
H       11.63737161       9.69022514       7.85793941       0.15385045       0.17428480      -0.12598046
Li       9.76689704       9.65403051       7.83162490      -0.23981657       0.04483464      -0.13570051
H       11.59815197      11.69760335       9.77413195       0.19391903      -0.17220170      -0.05125520
Li       9.79810385      11.63537085       9.80595998      -0.17793577       0.12346541      -0.19900005
H       11.68001719      13.72558403      11.74772265      -0.08403342      -0.23847780      -0.20139812
Li      11.74359952       5.93342907       5.84856371      -0.01463369      -0.22620438       0.05571426
H       13.56091011       7.79342846       7.85341861       0.41270115       0.05337945      -0.11566828
Li      11.78644492       7.79813545       7.75858882      -0.40575763      -0.16569115       0.13314561
H       13.72571955       9.77536302       9.79104445      -0.24920135      -0.22677388      -0.15331231
Li      11.62090537       9.67646692       9.73736932       0.26357665       0.29395680       0.01716160
H       13.58656692      11.75895031      11.64267894       0.06843325      -0.23750695       0.13046369
Li      11.64421260      11.77722796      11.66976534       0.28406448      -0.12236754       0.28754267
H       13.67205018      13.63995147      13.54705779      -0.02114270       0.12880636       0.28900537
128
Lattice="0.0 7.79576044408 7.79576044408 7.79576044408 0.0 7.79576044408 7.79576044408 7.79576044408 0.0" Properties=species:S:1:pos:R:3:force:R:3 Config_type=OUTCAR Weight=1.0 Energy=-14044.610696 Virial="20.0928094830085 -0.156601242993788 0.0382803038429259 -0.156601242993788 21.3682396065024 0.0261002071656313 0.0382803038429259 0.0261002071656313 19.4846746560493" energy=0.5164929990023666 pbc="T T T"
Li       0.01183867       0.09915615      -0.00528240       0.04238901      -0.50567738       0.05488097
H        1.89048981       1.87516447       1.98271462       0.10106621       0.32243871      -0.11181985
Li      -0.04591853       1.86906558       1.98781873       0.20170716       0.24829324       0.03442013
H        1.93778125       3.98296799       3.84654260       0.18617333      -0.26069084       0.08439518
Li       0.09493773       3.88060742       3.87164137      -0.20996786       0.24465590       0.18226037
H        1.87573380       5.79804392       5.89437764       0.21900657       0.22870143      -0.09614435
Li      -0.07988437       5.90693437       5.84900906       0.28824767      -0.42633854      -0.05552375
H        2.04855039       7.80456202       7.79633067      -0.36256849       0.00249808      -0.08763014
Li       1.92233495       0.07042063       1.88311382       0.20972643      -0.16669002       0.21925417
H        3.96582663       1.98385369       3.83334862      -0.12121903      -0.15865764       0.29434427
Li       2.03237991       1.93117621       3.95005535      -0.38910948      -0.06195125      -0.34348499
H        3.98704875       3.93941462       5.86481664      -0.28339934      -0.11182139      -0.07823404
Li       2.00839802       3.87816034       5.76887238      -0.28266709       0.33579714       0.20789452
H        3.88894665       5.88883145       7.88606691       0.01450796      -0.16327174      -0.26056640
Li       1.86534755       5.80197443       7.82740106       0.36381188       0.10578933      -0.16445213
H        3.85909428       7.88626483       9.76215356       0.13726066      -0.22131594       0.01816819
Li       3.94938957      -0.03614130       3.97560148      -0.17206568      -0.02145483      -0.21851575
H        5.80300893       1.98756598       5.92799055       0.23538167      -0.25787805      -0.24226323
Li       3.88336179       2.01014423       5.76908185       0.19617518      -0.25085431       0.42834168
H        5.82446091       3.97275405       7.73335879       0.08545576      -0.27890736       0.31758704
Li       3.93699167       3.82587768       7.85308346      -0.14636905       0.08907973      -0.30639580
H        5.81209445       5.80946386       9.83071571      -0.02212614       0.10532987      -0.24798291
Li       3.84204896       5.78020435       9.69525178       0.12964994       0.31254511       0.29940729
H        5.88753308       7.72496107      11.75134613      -0.16535536       0.28888890      -0.14672335
Li       5.91694715       0.02753681       5.78106355      -0.42186199      -0.16500826       0.31495038
H        7.89240232       1.93629260       7.77339110      -0.28233387       0.04399878       0.08779649
Li       5.84991012       1.85185836       7.81954250      -0.18764991       0.30689717      -0.13425684
H        7.80188969       3.99744545       9.73768649      -0.09727820      -0.39396578      -0.05635421
Li       5.84691821       3.99308781       9.77528660       0.10947938      -0.30749546      -0.06213842
H        7.80324769       5.93710710      11.65130581       0.02276301      -0.13661891       0.04944206
Li       5.81196780       5.75843643      11.72484302       0.32395258       0.33412901      -0.03055345
H        7.73419037       7.71734299      13.63484585       0.23301112       0.49733364       0.16111510
Li       1.95796428       2.03047959      -0.05718284       0.10442716      -0.41709388       0.31654806
H        3.87241801       3.87982832       2.04394435       0.08235192       0.04578492      -0.33949336
Li       1.90894952       3.95214068       1.87507161       0.10579396      -0.28911259       0.33985460
H        3.82963205       5.90576429       3.94109825       0.27381401      -0.08316156      -0.12840141
Li       1.96603816       5.94092027       3.86867647      -0.16690497      -0.17192196       0.06677721
H        3.82726570       7.83355893       5.78694660       0.24104016      -0.14109006       0.15906901
Li       1.85966978       7.84037509       5.84046883       0.31312592      -0.28895369       0.01150132
H        3.82223068       9.68316713       7.77360677       0.26311308       0.22023145       0.04251936
Li       3.95340217       2.01186183       2.00332918      -0.26519747      -0.22994842      -0.27481803
H        5.89851213       3.98348088       3.89857705      -0.13600442      -0.30415097      -0.01768765
Li       3.89777572       3.80158715       3.92485490       0.09985574       0.59617970      -0.06871710
H        5.75975955       5.83954758       5.89547757       0.26751044       0.08120187      -0.15009844
Li       3.85281342       5.91581489       5.90346603      -0.10943438      -0.27308073      -0.20465030
H        5.94661176       7.80175723       7.79337109      -0.35996011      -0.01055926      -0.01265986
Li       3.97887142       7.73866793       7.78231163      -0.33945299       0.23979137       0.21776704
H        5.85753792       9.73810900       9.84390582      -0.13359041       0.04686247      -0.40705269
Li       5.87080159       1.90053528       3.81372637       0.09474824       0.23660680       0.42371730
H        7.69630957       3.88821995       5.84279508       0.39464378       0.01315145       0.02179704
Li       5.87948222       3.80339950       5.84938828      -0.18368604       0.28186593      -0.03479448
H        7.73727105       5.89680459       7.85963974       0.19473999      -0.28793939      -0.35971508
Li       5.76365058       5.79677849       7.77170622       0.26221216       0.16652213       0.15574304
H        7.78632378       7.81715709       9.64747333      -0.02103908      -0.13007725       0.25271785
Li       5.81611405       7.85893662       9.81587566       0.10875124      -0.40592732      -0.19633047
H        7.74186061       9.71721506      11.61402060       0.14935667       0.08500427       0.27093566
Li       7.84600750       1.93065359       5.93132380      -0.27045178       0.16683966      -0.45282450
H        9.66555697       3.85237441       7.75494974       0.17545440       0.18560100       0.06335275
Li       7.72983507       3.90548995       7.87056644       0.01787302       0.06327742      -0.25067279
H        9.75664062       5.75882882       9.69871220       0.06228240       0.28636254      -0.00847950
Li       7.82285931       5.79151292       9.66591768      -0.14719746       0.47313467       0.44178495
H        9.69845241       7.87855093      11.66190986       0.11156274      -0.14822127       0.03288441
Li       7.78801806       7.86456791      11.76579043       0.03504825      -0.32037103      -0.42208285
H        9.77154755       9.71797366      13.55003397      -0.11920354       0.12014405       0.21475448
Li       3.82305614       3.96229911      -0.01586076       0.27449381      -0.35438030       0.01913184
H        5.94299212       5.82224348       1.93681716      -0.26052501       0.02170140       0.05107368
Li       3.96522489       5.77982314       1.98018224      -0.22276733       0.16813652       0.13819988
H        5.91804129       7.76749135       3.83362734      -0.31244175       0.07093108       0.22444857
Li       3.97578102       7.80184957       3.83547519      -0.13924375      -0.11529778       0.09252629
H        5.89951252       9.80961281       5.90168319      -0.25856428      -0.27058136      -0.17736961
Li       3.89573771       9.65236873       5.88516410      -0.01619666       0.25342079      -0.14255148
H        5.88063496      11.62374872       7.73273912      -0.18970602       0.21597499       0.24581007
Li       5.89026134       3.92325768       1.86251752       0.11628997      -0.16774135       0.20709002
H        7.80970843       5.89979766       3.81422105       0.00157146      -0.10540880       0.30017733
Li       5.91669983       5.78253801       3.92925917      -0.34250000       0.25390081      -0.10620148
H        7.88982756       7.82746378       5.85891482      -0.30588595      -0.19338964      -0.00612591
Li       5.83066577       7.71884244       5.90864792       0.09669071       0.15074944      -0.21336403
H        7.84210047       9.75055557       7.88418171      -0.14854163      -0.05546410      -0.44229738
Li       5.76476415       9.75078467       7.73892940       0.29437538       0.00884691       0.24400207
H        7.83755745      11.60506917       9.72449906      -0.13129493       0.25084969       0.03157315
Li       7.78347763       3.97206353       3.83195625       0.09737205      -0.39861665      -0.06994815
H        9.80695247       5.77501139       5.81570482      -0.32378160       0.07695389       0.14196989
Li       7.82177214       5.80076539       5.76195377      -0.06793857       0.08645257       0.35923866
H        9.83125723       7.82694915       7.83494216      -0.18554315      -0.16939071      -0.16746187
Li       7.81649905       7.69795218       7.79390202      -0.05581891       0.36352057       0.07160805
H        9.76475529       9.73791687       9.64696730       0.08272062       0.01331009       0.28295891
Li       7.73921421       9.67135064       9.70698698       0.20452252       0.29724962      -0.00016224
H        9.69152171      11.66681323      11.61331446       0.23266222       0.02132859       0.32188310
Li       9.67919649       3.84114510       5.89672367       0.11887162       0.15676608      -0.40994698
H       11.75529932       5.76814567       7.79867716      -0.18883108       0.17859372       0.08148546
Li       9.82747480       5.89956487       7.81490305      -0.24638008      -0.06889991      -0.01066879
H       11.63020855       7.80137972       9.66759809       0.24356987      -0.06616657       0.28832943
Li       9.69714640       7.87664280       9.71010798       0.11793573      -0.16263925       0.00407211
H       11.77824743       9.70784071      11.73215102      -0.11643858       0.13351713      -0.12189266
Li       9.78066063       9.71866512      11.60403581      -0.23023561       0.15094150       0.13876321
H       11.78197366      11.73070153      13.67128223      -0.47979023      -0.17505922      -0.10422558
Li       5.81364173       5.83164385       0.09310669       0.30497758      -0.05331054      -0.50675905
H        7.70976416       7.76150465       1.98677105       0.24326262       0.14228125      -0.22799592
Li       5.83494665       7.80617368       1.85019509      -0.00891144      -0.14811791       0.40695371
H        7.76375406       9.82196676       3.84305755       0.07084212      -0.25232216       0.20191156
Li       5.86780543       9.81194357       3.96885912       0.13856087      -0.21917755      -0.13020684
H        7.76756000      11.77914462       5.80330242       0.11988926      -0.26327506       0.07700197
Li       5.74817794      11.70153337       5.83241952       0.58892765       0.14734273       0.20963824
H        7.88069230      13.59398998       7.81638845      -0.34753422       0.31248854       0.02608436
Li       7.86385253       5.91692073       1.92774098      -0.13059405      -0.28926300      -0.04302638
H        9.69729210       7.76827243       3.98152738       0.12247347       0.16577291      -0.15000022
Li       7.70349613       7.78148752       3.93370731       0.37728909       0.17589046      -0.09298498
H        9.77818620       9.81498669       5.78406230      -0.03676009      -0.16325631       0.15034449
Li       7.72803866       9.69016880       5.89621717       0.24799139       0.36450273      -0.03562084
H        9.70656515      11.69149505       7.88817845       0.30577745      -0.01011215      -0.28822350
Li       7.87743844      11.74779981       7.77587347      -0.29032152      -0.26689826      -0.00328870
H        9.74147566      13.54268782       9.74138446       0.05106082       0.30474978       0.08227633
Li       9.72556055       5.94487118       3.90231769       0.16090838      -0.31311975      -0.14544731
H       11.62496876       7.73809168       5.89107509       0.20792589       0.14155517      -0.13995749
Li       9.75208515       7.81292626       5.94505883       0.08448645       0.03954614      -0.24041949
H       11.75315833       9.74554818       7.71540542      -0.10460662      -0.01699448       0.19283608
Li       9.70258299       9.82248161       7.74911049       0.20930837      -0.16647842       0.17941724
H       11.65619555      11.60335966       9.72355337       0.29167264       0.21518720       0.16267370
Li       9.83219192      11.67225086       9.78814865      -0.51211800      -0.07487027      -0.18556912
H       11.78634604      13.64174106      11.65615722      -0.36710546      -0.08804049       0.11184325
Li      11.60296467       5.81259179       5.82219778       0.46245303       0.09556302      -0.01358417
H       13.55342336       7.75054403       7.79829638       0.42415207       0.08864444      -0.04047379
Li      11.75620245       7.73209267       7.84084301      -0.32620127       0.29568201      -0.26693631
H       13.68762605       9.66518018       9.70411198      -0.14723397       0.27876415       0.09461814
Li      11.72574844       9.79085353       9.82739877      -0.03263527      -0.38051608      -0.44494767
H       13.70735043      11.72022010      11.76504392      -0.23689965      -0.16681601      -0.27338875
Li      11.75241789      11.62104374      11.65793457      -0.23603370       0.27701760       0.25987297
H       13.71126749      13.70394946      13.68151688      -0.35503259      -0.12726035      -0.01323064
128
Lattice="0.0 7.79576044408 7.79576044408 7.79576044408 0.0 7.79576044408 7.79576044408 7.79576044408 0.0" Properties=species:S:1:pos:R:3:force:R:3 Config_type=OUTCAR Weight=1.0 Energy=-14044.721827 Virial="19.8352874389743 0.0582904626699099 -0.147901173938577 0.0582904626699099 20.5086727838476 -0.0696005524416835 -0.147901173938577 -0.0696005524416835 20.1458799042453" energy=0.4053619990027073 pbc="T T T"
Li      -0.02461064       0.08760213       0.04147509       0.14163719      -0.17824765      -0.18410539
H        1.95570563       2.01717926       1.87615518       0.01525230      -0.26056820       0.24135769
Li      -0.09762704       1.92740434       1.95121412       0.50866398       0.15286803      -0.02856496
H        1.97857667       3.80732484       3.92823473      -0.08801503       0.18022354      -0.10938887
Li       0.02686907       3.82424426       3.95997529      -0.14351693       0.19344492      -0.30928212
H        1.93997998       5.94543936       5.83289182      -0.02510734      -0.27587706      -0.12086911
Li      -0.05625811       5.77249023       5.81062556       0.11065514       0.29463018       0.23358344
H        2.02265575       7.74365397       7.75273813      -0.19355111       0.24963870       0.17515204
Li       1.94648207      -0.09446846       1.98164590       0.04863576       0.36729495      -0.16315733
H        3.97770104       1.91692742       3.94890790      -0.24408177       0.06505457      -0.17972783
Li       1.97410589       1.87620851       3.83403041      -0.07100410       0.12364847       0.04710235
H        3.96170591       3.94485777       5.78583352      -0.32351883      -0.16514170       0.17073462
Li       1.86880424       3.90881573       5.78800999       0.30541287       0.06705463       0.35279496
H        3.81453796       5.79899019       7.76807752       0.26974575       0.06754211       0.00295497
Li       1.86718218       5.89823688       7.76983788       0.11840187      -0.23490139      -0.02691482