128
Lattice="0.0 8.3293 8.3293 8.3293 0.0 8.3293 8.3293 8.3293 0.0" Properties=species:S:1:pos:R:3:force:R:3 Config_type=OUTCAR Weight=1.0 Energy=-64553.506096 Virial="64.0122198782168 -0.359726519108738 0.439312032185892 -0.359726519108738 64.5152003208645 -0.162354446677395 0.439312032185892 -0.162354446677395 62.9860973296087" energy=-2.1680823582428275 pbc="T T T"
Mg      -0.06624245      -0.03267050       0.06741347       1.99379080       0.63810746      -0.98738797
O        2.17954922       2.10366798       2.07273712      -1.28283499       0.22981549      -0.09447365
Mg      -0.01462626       2.01986414       2.00561311       1.02408533       0.96804762       1.19484695
O        1.99638281       4.16000586       4.11373465       0.71554420       0.01821241       0.30869540
Mg       0.01020163       4.13028945       4.07129434       0.39286612       0.35241572       1.64861659
O        1.99413896       6.22873896       6.20349318       1.21900169       0.43568707       0.69544640
Mg      -0.02959000       6.33598201       6.28164753       0.18424294      -1.74133674      -1.07867885
O        2.12418879       8.37975922       8.40480689      -0.48568731      -0.52089086      -1.54073310
Mg       2.12908579      -0.07767128       2.04012783      -0.09867843       1.61104017       0.19775203
O        4.09361162       2.08906270       4.23470820       0.81901285      -0.03764249      -0.35786003
Mg       2.04689685       1.98916456       4.15652735       0.52651129       1.10230266      -0.03196935
O        4.09351167       4.22137178       6.28847172       1.04391651      -0.63743768      -0.21429348
Mg       2.13394296       4.12360899       6.32214961      -0.93765975       0.08802300      -1.01646586
O        4.24082707       6.23445872       8.26573589      -1.15019949       0.33575420       0.52882066
Mg       2.09388644       6.20719038       8.23828617       0.12837236       0.57928601       0.38813914
O        4.08244659       8.28380612      10.44587272       1.70274345       0.43100792      -0.15509923
Mg       4.16877905      -0.07722209       4.22805110       0.20849282       1.09006447      -0.78521827
O        6.31066404       2.14929553       6.28516734      -0.53026742      -0.15134234      -0.14538355
Mg       4.15494140       2.03542256       6.33475828       0.27136246       0.83918367      -0.94385328
O        6.29698142       4.25123546       8.33082194      -0.48670984      -0.82556891       0.11145373
Mg       4.16364275       4.16162866       8.42924927       0.62487424       0.30583710      -1.17353893
O        6.26291133       6.15427946      10.44558926      -0.15799172       1.69312341      -0.18125686
Mg       4.07026736       6.27421459      10.43033119       1.13338884      -0.10320331      -0.67066482
O        6.24360173       8.36839233      12.58593049      -0.05419320       0.03203646      -1.18744089
Mg       6.32779165      -0.03031257       6.29747071      -0.51480094       1.09585022      -0.71848914
O        8.33203115       2.15618740       8.39665642       0.35768982      -0.97281445      -0.98114662
Mg       6.27789969       2.12119643       8.41609099      -0.21353475       0.22662835      -1.27842349
O        8.23935724       4.20060286      10.43647840       1.69459177      -0.64692120      -0.53113696
Mg       6.33844097       4.20162030      10.42797045      -1.66757616      -0.79892431      -0.22018440
O        8.28851110       6.33221421      12.52666914      -0.23243570      -1.11207799      -0.40533571
Mg       6.26243028       6.15027817      12.47368039      -0.23041327       0.95315091       0.54360450
O        8.35981250       8.23998834      14.54322330      -0.41211442       2.11636634       0.75984482
Mg       2.13369723       2.16732717      -0.01164153      -0.71592909      -1.42694378       1.07218090
O        4.08371870       4.16117949       2.14096015       1.17636663      -0.12786919      -1.43119099
Mg       1.99566239       4.19775546       2.04499378       0.51046786      -0.25213267       1.01838828
O        4.09065575       6.21305732       4.10656005       0.59410791       0.46215735       0.73360980
Mg       2.00754248       6.28118553       4.22154653      -0.00410502      -0.87513361      -0.75954992
O        4.22669964       8.37548686       6.18359821      -0.86106376      -0.07018778       0.28098327
Mg       2.01576277       8.39862062       6.21933226       0.45655363      -0.74612619       0.44744215
O        4.15363231      10.36016389       8.41433155       0.83783075       1.00692347      -0.97834875
Mg       4.23818919       2.14034144       2.11734042      -1.40312122      -1.32986792       0.31204297
O        6.17123563       4.13237163       4.10789038       0.83534861       0.30161355       0.73184037
Mg       4.22672052       4.19889781       4.09412101      -2.25685322      -0.81829243       1.40009735
O        6.24483555       6.34692312       6.24456767      -0.22874771      -1.11333346      -0.16250967
Mg       4.11681027       6.24230072       6.15928514       0.24380486       0.45515084       0.72707945
O        6.23933110       8.29462252       8.42278285       0.59896678       0.51251935      -1.01463987
Mg       4.25640713       8.35047533       8.29565131      -1.45413603      -0.55307310       0.33774835
O        6.28041629      10.31744657      10.40814595      -0.51418748       1.40435792      -0.14999096
Mg       6.18970304       2.14849554       4.11626216       0.17135040      -1.24377299       1.07781393
O        8.39412107       4.23656314       6.27200956      -0.57599089      -1.30917491      -0.33511888
Mg       6.23917079       4.26099092       6.27261719      -0.34167417      -0.71248073       0.68292847
O        8.34492961       6.15950486       8.28342309       0.13910028       1.47843887       0.95215537
Mg       6.24030341       6.31428850       8.40295040       0.05635344      -1.24486596      -0.76001760
O        8.37872422       8.30977859      10.49633723      -1.20868129       0.01781826      -1.92341276
Mg       6.26963497       8.38631618      10.33265867      -1.04112557      -1.37774881       2.17030346
O        8.41403913      10.36343288      12.47166101      -0.94019846       0.82537376       0.26788993
Mg       8.28429776       2.09962249       6.15936452       0.47297629      -0.08507575       0.95737857
O       10.44552634       4.24850927       8.28665821       0.06874256      -0.78667326       0.54806022
Mg       8.36674873       4.10272214       8.39831111      -0.64094930       1.19322818      -0.88294359
O       10.31438218       6.22815376      10.39785567       0.51131427       0.24175647      -0.18315820
Mg       8.25594725       6.22363013      10.47545596       0.89695353       0.13044261      -0.42374995
O       10.32933838       8.29373164      12.44963517       1.03627133       0.85627996       0.45228483
Mg       8.27389500       8.34018624      12.41141652       0.03489578      -0.19830045       1.76795743
O       10.38635106      10.42344282      14.67230399       0.02861355       0.35046837      -1.04624464
Mg       4.11893658       4.08645212       0.04237187       0.72165263       0.68478686      -0.11889090
O        6.25622153       6.16111490       2.13274866       0.03690150       1.10081759      -0.86514230
Mg       4.17895757       6.16283055       2.13443071      -0.64435575       1.41139966      -0.47268293
O        6.30741636       8.25438116       4.19174260      -0.80541429       0.94127369      -1.00694944
Mg       4.11610469       8.39056039       4.10227599       0.42359389      -0.64779023      -0.18383285
O        6.28291324      10.37217796       6.33154671      -0.90633343       0.68666351      -1.01321882
Mg       4.06537836      10.41339406       6.25889187       0.96491036      -0.69854587      -0.10549417
O        6.25981370      12.49470554       8.23013046      -1.00903203      -0.00816994       1.51423556
Mg       6.19657728       4.18986043       1.99971444       1.07674358      -0.37172239       0.39141550
O        8.37149242       6.16428110       4.20181879      -0.86938282       0.78266876      -0.41354858
Mg       6.22153570       6.15596051       4.19734870       0.45885837       1.40323667      -0.33557602
O        8.25717011       8.38389378       6.20435107       1.14724529      -0.71260106       0.95334682
Mg       6.28489932       8.40538511       6.19431760      -0.37081942      -1.30911372       0.25039203
O        8.26344585      10.33725929       8.31776870       0.86583881       0.28440413       0.54678521
Mg       6.32970350      10.38024692       8.28270159      -1.12366467       0.03058199       0.75544412
O        8.23586115      12.48223369      10.44526885       0.51287056      -0.07924269      -0.50034029
Mg       8.28141595       4.19851630       4.24564501       0.64237086      -0.63683913      -1.35689485
O       10.37532100       6.19789302       6.16777286       0.95056412       0.91854334       0.83897592
Mg       8.28168285       6.18891707       6.31301955       0.08071876       1.16396492      -0.80871301
O       10.49825519       8.36054356       8.36827500      -2.01286478      -0.91467923      -0.56775744
Mg       8.30429902       8.31903352       8.42557850       0.22904339      -0.51392805      -1.29852643
O       10.43283137      10.49149624      10.35531448      -0.42674991      -1.27175070       0.27364175
Mg       8.30775257      10.31539320      10.42821263       0.65178418       1.92383596       0.02843383
O       10.46379190      12.42147403      12.44894058      -0.60672791       1.59422336       0.52522960
Mg      10.47930854       4.20537178       6.30829935      -1.09822515      -0.54971241      -0.98905276
O       12.46185207       6.28447946       8.41626631       0.46404788      -0.75093389      -1.25845167
Mg      10.47781684       6.27341668       8.25916101      -1.23797978      -0.24879640       1.33226265
O       12.55631109       8.30586448      10.33704705      -0.49592776       0.21613876       0.94985244
Mg      10.32172036       8.28644606      10.42060807       1.75609025       0.02214363       0.22539576
O       12.40126152      10.42710332      12.45975546       1.17151496      -0.16019542       0.38044075
Mg      10.42813889      10.51016509      12.48980973      -0.65538527      -1.39384057      -0.41872550
O       12.53400699      12.40651774      14.54886993      -0.62629349       0.99468733       0.79912768
Mg       6.21336624       6.33847940      -0.02230236       0.00937296      -0.95139947       0.15338688
O        8.39582502       8.39004896       2.12572990      -0.83198869      -0.94307629      -0.70114371
Mg       6.31672940       8.34344260       2.01208035      -1.33408505      -0.10690956       1.62698795
O        8.32937486      10.41887923       4.26438651      -0.19333205      -0.14321482      -1.69501086
Mg       6.30475219      10.41571345       4.24616737      -0.76152504      -0.26491054      -1.01496537
O        8.42493751      12.46851382       6.26134397      -1.35803462       0.45268695       0.13166980
Mg       6.21532532      12.42595852       6.31312223       0.70565317       0.86736682      -1.39175721
O        8.36700917      14.55432766       8.23932038      -0.82304280       0.50489808       1.48929201
Mg       8.34540749       6.34519061       2.07261716      -0.25924897      -1.68765288       0.27660468
O       10.33948477       8.29299539       4.10567744       0.60006567      -0.14612557       0.91707061
Mg       8.29222843       8.41277647       4.12393909       0.45630989      -1.10454955       0.94907751
O       10.33108871      10.38042820       6.29738002       0.98856991      -0.35391159      -0.12552589
Mg       8.28616810      10.48510263       6.19462353       1.00159255      -0.69245981       1.03023489
O       10.41205106      12.44067067       8.41392347       0.14982178       0.36134722      -1.07967001
Mg       8.23485281      12.50399009       8.29801223       1.41741527      -0.08977264       0.60103086
O       10.36346059      14.62552793      10.33913819       0.25587182      -1.27285834       0.33779771
Mg      10.33622927       6.23419655       4.10021247       0.39298413      -0.02888095       0.17872921
O       12.58758810       8.36408652       6.25164444      -1.35750522      -0.89218568       0.53052761
Mg      10.34634144       8.28044069       6.30486131      -0.41761993       0.82090981      -1.15273665
O       12.54253943      10.32593019       8.34648916      -0.29920957       1.16024376      -0.07777922
Mg      10.35163682      10.33384252       8.31055690       0.12425113       1.14678583       0.26900399
O       12.57238101      12.54802812      10.44202457      -0.65084239      -0.50701950      -0.14287286
Mg      10.49035160      12.47911651      10.35177443      -1.40179711       0.35013130       0.84727930
O       12.52070648      14.59306913      12.39907088      -0.67867869      -0.77829352       1.64803629
Mg      12.40248609       6.28622404       6.25666343       1.48637766      -0.15390084      -0.42806683
O       14.64435352       8.35222866       8.39886717      -0.36507429      -0.27948561      -0.93791712
Mg      12.39797573       8.32114447       8.30242201       1.90263439       0.24150424       0.88085097
O       14.66908600      10.41926033      10.37518572      -0.93446953      -0.05391012       0.99799403
Mg      12.45105406      10.48619333      10.36063969       0.73532395      -0.99909781       0.54837621
O       14.63740597      12.41512022      12.50094074      -0.71238277       0.51412140       0.61936874
Mg      12.42473552      12.49038632      12.56603783       1.22450643       0.10638017      -1.26441098
O       14.54875257      14.67239212      14.57427130      -0.40615229      -1.52752560       0.36185990
128
Lattice="0.0 8.3293 8.3293 8.3293 0.0 8.3293 8.3293 8.3293 0.0" Properties=species:S:1:pos:R:3:force:R:3 Config_type=OUTCAR Weight=1.0 Energy=-64553.560104 Virial="65.6856379331858 0.370337920852359 0.188882951036446 0.370337920852359 66.541978053896 0.321525472831704 0.188882951036446 0.321525472831704 61.4877674034095" energy=-2.222090358241985 pbc="T T T"
Mg      -0.06299029      -0.03587441       0.06888578       0.51102476       0.20692419      -0.37495427
O        1.99010417       2.11376330       2.05980943       1.26578729      -0.51163720       0.22996462
Mg       0.04281511       2.15194586       2.13994273      -1.24969887      -1.34121934      -0.86342377
O        2.10889698       4.22109671       4.08649824       0.03381952      -0.76941858       1.28070303
Mg       0.01835032       4.06776147       4.18125957      -0.42653908       1.57610711      -0.00846407
O        2.05831841       6.34031264       6.22029600       0.68657789      -1.70240510       1.02252210
Mg       0.08886757       6.24767858       6.29282322      -1.33776327       0.05050829      -0.58555076
O        2.16176241       8.38802581       8.31377657      -1.01039678      -0.50467954       0.05100195
Mg       2.12862551      -0.00499101       1.99383007      -1.23183150       0.03697992       1.77891496
O        4.16065628       2.16050034       4.10241925      -0.46900445      -1.02322812       1.48254415
Mg       2.05892028       2.17868897       4.15175797       0.61184569      -1.47818921       0.03592525
O        4.19626747       4.11589363       6.16559225      -0.39261646       0.22076546       1.67532418
Mg       2.08266928       4.07118736       6.21141356       0.18786923       0.68407004       0.28172041
O        4.11192793       6.32854118       8.35311894       0.23336053      -1.54020139      -0.00000591
Mg       2.09029995       6.34607819       8.34002183      -0.57647091      -1.02546935       0.19267719
O        4.06703430       8.34152926      10.42955878       0.99533757      -0.39010167      -0.22865721
Mg       4.12673964       0.00195933       4.25716468       0.12776095      -0.16847900      -1.34524903
O        6.16064128       2.07289917       6.19740038       1.10692550       0.08413267       0.97471192
Mg       4.24714038       2.06675013       6.19263569      -1.79421842      -0.07082490       0.50427433
O        6.26215963       4.18077023       8.42681700      -0.70759538      -0.71555423      -1.07313298
Mg       4.23613389       4.12456682       8.38660089      -0.79152364      -0.10635703      -0.49228656
O        6.33635811       6.20719053      10.39094034      -2.00429555       0.32661059       0.33058808
Mg       4.09410387       6.18140506      10.43852901       0.21499257       1.05070807       0.34270569
O        6.31853972       8.36760101      12.43554176      -1.60411799      -0.60019217       0.45707042
Mg       6.21097365       0.03386505       6.33390636       1.00728420      -0.89489845      -1.00090683
O        8.26085252       2.01081396       8.31511857       0.67076921       0.61038813       0.07689733
Mg       6.26743842       1.98505024       8.34020269      -0.27095649       1.12516800       0.20750731
O        8.29816111       4.11671808      10.49367925       0.43156790       0.34337315      -0.75477075
Mg       6.15159727       4.13764276      10.42480440       1.20360901      -0.10333418       0.02122009
O        8.24619471       6.19987318      12.52352920       1.51955261       0.15478941       0.14442093
Mg       6.33054977       6.19399142      12.50837213      -0.89593923       1.19282118      -0.14915741
O        8.23683525       8.32641546      14.53830199       0.61081622      -0.14762735       1.50294251
Mg       2.03988107       2.04955986       0.08440947       0.28704748       0.54775169      -1.48239965
O        4.23802239       4.13791114       2.14478719      -1.35078179       0.35504339      -0.87285201
Mg       2.04666677       4.07842672       2.11829773       0.58147736       1.56531336      -0.63155397
O        4.16561457       6.27016137       4.26192005       0.46122224      -0.34968187      -0.51039947
Mg       2.17814973       6.26585037       4.14317113      -1.03119212       0.21845199       0.50833925
O        4.21953476       8.24814380       6.22694170       0.24264787       0.88573606       0.54487565
Mg       2.15271151       8.27948261       6.29761063      -0.78855788       1.16832473      -1.32455859
O        4.23830038      10.47907799       8.32422887      -1.45313612      -0.59954374      -0.04773433
Mg       4.15309637       2.07247871       2.18116611       0.00572250       0.03903655      -1.51575740
O        6.19833083       4.19314650       4.08205645       0.76740824      -0.37057517       1.40329863
Mg       4.23258218       4.12512833       4.22648249      -0.62559338       1.15487581      -1.35145696
O        6.30632900       6.20307572       6.31442836      -1.32078087       0.55667110      -0.37555745
Mg       4.16369246       6.15654559       6.28965527       0.20961896       0.73607729      -0.62068129
O        6.27729774       8.33157786       8.42456459      -1.17617148      -0.10089086      -1.56823130
Mg       4.11049325       8.28784170       8.25616823       1.27888063       1.11408757       0.86429949
O        6.16433414      10.35649745      10.42308976       0.72680203       0.41792897      -0.11556209
Mg       6.15750349       2.06389888       4.20533571       1.39832740      -0.23833458      -1.51187889
O        8.31169829       4.21548220       6.16267632      -0.02125325      -1.04092837       1.39303787
Mg       6.27771325       4.08516409       6.19465722       0.26239265       1.14685962       0.46805186
O        8.30754398       6.17665685       8.39699072       0.07809675       0.41014110      -0.37096186
Mg       6.15047298       6.25880594       8.35269634       1.54284809      -0.25212521       0.14794642
O        8.35846737       8.39382808      10.34101769      -0.54460929      -1.20770941       1.11952674
Mg       6.16300584       8.29240226      10.37177859       0.68090578       0.31065072       1.25974982
O        8.24574905      10.35730244      12.48568578       0.62181489       1.13046421       0.14489864
Mg       8.26656878       2.00637593       6.22975486       1.01299282       0.55334281      -0.17468281
O       10.39317165       4.07793354       8.28304278       0.28200786       0.58175376       0.58638534
Mg       8.37105441       4.12583886       8.41146000      -0.91196646       0.35318628      -0.58633752
O       10.42971646       6.31075611      10.48648934      -0.50672768      -1.31339126      -0.61762168
Mg       8.30038693       6.26386073      10.50585295       0.67765308       0.00187356      -0.74929507
O       10.39159188       8.30496106      12.58885148      -0.01868061       0.29826623      -0.77422500
Mg       8.29400900       8.31431693      12.58630829       0.41201749      -0.06713562      -1.04343674
O       10.38059119      10.32935383      14.52864772       0.20800045       0.89669025       0.65604296
Mg       4.20880864       4.24043628      -0.04802556      -0.47078880      -0.63954342       0.63958764
O        6.30805019       6.28967160       2.14900949      -0.98913607      -0.37870936      -0.41835346
Mg       4.10120801       6.18911075       2.13357772       0.73506839       0.84897674      -0.25595718
O        6.20905549       8.40495481       4.11137279       1.08071851      -0.81365004       1.25759601
Mg       4.24949913       8.37525964       4.13841384      -1.72985265      -0.46009224       0.50312454
O        6.27712190      10.50597603       6.26072450      -0.33770747      -1.36012184      -0.42188873
Mg       4.08628129      10.38926708       6.30492729       0.16669465       0.32314680      -0.88264894
O        6.34212314      12.47151233       8.35035664      -0.92839992       0.52407646      -0.25327038
Mg       6.20790480       4.07598684       2.10707097       0.89073815       0.69687439      -0.26190954
O        8.33041409       6.20833293       4.25687553      -0.24880489       1.23370095      -0.34036136
Mg       6.19804662       6.33154485       4.18595622       0.36796421      -0.93214499      -0.25656628
O        8.35286520       8.37467877       6.33291363      -0.92705549      -0.75524255      -0.99863526
Mg       6.27845244       8.41912592       6.27764218      -0.37413357      -0.76198707       0.31733250
O        8.38390727      10.34586480       8.27739968      -0.94634314       1.28977542       0.56856503
Mg       6.16394719      10.38327783       8.37728770       1.44373360       0.58040239       0.00562892
O        8.37294451      12.58261819      10.42689291      -0.46098390      -1.82045499       0.11453416
Mg       8.29534035       4.24478028       4.21390323      -0.14946234      -0.88299090      -0.80226777
O       10.46029526       6.27591068       6.32940031      -0.46279961       0.02747815      -0.91144504
Mg       8.25990388       6.28431416       6.30853770       1.07292189      -0.31244149       0.04710570
O       10.46463496       8.32842094       8.41408898      -0.52806449       0.18135765      -0.94333623
Mg       8.25199390       8.38464537       8.36029447       1.45203004      -0.95937555       0.40306003
O       10.32579889      10.36322611      10.39455378       1.20873348       0.98854780       0.43612904
Mg       8.40010544      10.34342000      10.42991891      -1.83299914       0.47217565      -0.08630602
O       10.41436685      12.58670911      12.53120895       0.04804415      -1.70008416      -0.49038369
Mg      10.40433698       4.26115483       6.22180154      -0.17840551      -0.85171214       0.32698725
O       12.41513140       6.30846551       8.32674167       1.10505631      -0.93623665       0.23364875
Mg      10.32904686       6.20047107       8.29739020       0.58952055       1.08151889       0.91699297
O       12.47188413       8.32091518      10.50879903       0.27640954       0.08371435      -1.08732084
Mg      10.37476471       8.32176211      10.50427757       0.42029439      -0.16412612      -0.76615637
O       12.43166128      10.37062273      12.42732471       0.64258143       1.00229986       0.81316976
Mg      10.36596176      10.48646195      12.44584283       0.12259329      -0.92075680       0.99359436
O       12.56307392      12.55363875      14.53554250      -1.02104680      -0.47935443       0.47283308
Mg       6.17464466       6.21585686       0.06164400       0.75667671       0.46940657       0.18841996
O        8.33413316       8.22944508       2.08469892       0.22941106       1.26746210       0.32206745
Mg       6.24083894       8.42776461       2.06598274      -0.10615520      -1.97921984       0.19895737
O        8.40489177      10.41507247       4.09927417      -1.23439695      -0.48879886       1.25627343
Mg       6.26827594      10.32352858       4.20690271      -0.59276862       1.86352020      -0.72318912
O        8.40768295      12.44613106       6.20735857      -0.34469778       0.28795276       0.47340927
Mg       6.15748900      12.48443127       6.20336710       1.90611952       0.37011185       0.42045997
O        8.31324467      14.64494769       8.40019632       0.60804894      -0.94313492      -1.05931947
Mg       8.37286760       6.17382404       2.13477308      -1.15025785       1.34855624       0.09208406
O       10.41351625       8.42270232       4.20032114      -0.16240219      -0.52779864      -0.17924369
Mg       8.23505090       8.30203263       4.14532133       1.85163527      -0.25565456      -0.23815924
O       10.43704020      10.31529404       6.25560135       0.29204596       2.12905037      -0.42389548
Mg       8.38165931      10.32643027       6.24637454      -0.40925459       1.32165016       0.29784303
O       10.41359629      12.42234697       8.39907908       0.50486954       1.41472538      -1.11195484
Mg       8.37364154      12.57164453       8.37399213      -0.66408614      -0.74590533      -0.48336946
O       10.31799664      14.59829129      10.43899309       1.69309847      -0.37731454      -0.51529691
Mg      10.44771599       6.15458774       4.15192074      -0.91752338       2.20777343       0.64830394
O       12.58216015       8.29719980       6.21249969      -0.71135124       1.06623008       0.64205873
Mg      10.40607282       8.42345800       6.28019313       0.17546083      -2.08227171       0.08098358
O       12.41114381      10.36368074       8.30024001       1.13184258       1.03436100       0.05771175
Mg      10.34683577      10.48638335       8.31468684       0.49645021      -1.91567837       0.16747858
O       12.42694075      12.49369072      10.48585231       0.23701098      -0.13348474      -0.94227282
Mg      10.35993719      12.41384032      10.38144539       0.27878421       0.81516057       0.77032130
O       12.42580208      14.61800161      12.55407280       1.01138536      -0.37644268      -0.94439270
Mg      12.58607423       6.28415563       6.23554138      -1.21408112       0.08086454       0.36684938
O       14.62254699       8.31745620       8.41715572      -1.30863369       0.03734296      -1.22593956
Mg      12.49255785       8.39610262       8.25489925      -0.79377079      -1.29174232       1.28203743
O       14.57333363      10.33145721      10.35192179      -0.19724578       1.61747976       0.74683170
Mg      12.41389736      10.38276914      10.35909963       0.28407143      -0.43743079       0.72057276
O       14.56465598      12.53478764      12.40341114      -0.11294342      -1.01081664       1.21792569
Mg      12.53816513      12.57996471      12.51937622      -0.60121701      -1.05700445      -0.14707816
O       14.56599363      14.67460179      14.56123720       0.38239118      -1.38570997       0.60209427
128
Lattice="0.0 8.3293 8.3293 8.3293 0.0 8.3293 8.3293 8.3293 0.0" Properties=species:S:1:pos:R:3:force:R:3 Config_type=OUTCAR Weight=1.0 Energy=-64553.743202 Virial="63.9772022524629 -0.00106114017436206 -0.276957585508497 -0.00106114017436206 66.0389976112484 -0.0679129711591718 -0.276957585508497 -0.0679129711591718 59.9724592344205" energy=-2.405188358243322 pbc="T T T"
Mg      -0.06776741      -0.02222238       0.07009811       0.69333784       0.71210869      -0.33983943
O        2.03126457       2.13886411       2.01754721       0.68667431      -0.96365412       1.07904446
Mg       0.05106250       2.01713141       2.13838226      -1.32043480       0.97343871      -0.83559209
O        2.05963786       4.24280673       4.10653960       0.67997042      -1.77975237       1.12057061
Mg       0.09017742       4.12194095       4.15801907      -1.48052634       0.50282912       0.06877753
O        2.14151690       6.16758000       6.26085859      -0.56324439       0.64111976       0.37000927
Mg       0.05298969       6.20112917       6.31832101      -0.57949247       0.27614214      -1.13355982
O        2.05404132       8.38269758       8.40897893      -0.00998051      -0.98857659      -0.80521914
Mg       2.10103926      -0.02424195       2.17752008      -0.43835922       0.63033964      -1.39871692
O        4.12125327       2.17134063       4.17854029       0.50815464      -0.76123065      -0.33226341
Mg       2.09195257       2.06834324       4.06610143       0.03390745       0.17309593       1.29713958
O        4.18405827       4.14376593       6.34282475      -0.21332212      -0.29864547      -0.83492721
Mg       2.18217289       4.16686164       6.24192442      -0.81160859      -0.72004852      -0.68402839
O        4.14234816       6.33706262       8.29205959      -0.03365857      -1.07742595       0.45499168
Mg       2.09029001       6.14949774       8.30844952       0.10300328       1.60429643       0.33420974
O        4.07048034       8.35753476      10.42992453       1.18633043       0.34095091       0.42963315